<?xml version="1.0" encoding="UTF-8"?>

<!-- generated on 2025-10-26T19:57:35.335004+00:00 by Eclipse SUMO GUI v1_24_0+1451-23d18e1e926
This data file and the accompanying materials
are made available under the terms of the Eclipse Public License v2.0
which accompanies this distribution, and is available at
http://www.eclipse.org/legal/epl-v20.html
This file may also be made available under the following Secondary
Licenses when the conditions for such availability set forth in the Eclipse
Public License 2.0 are satisfied: GNU General Public License, version 2
or later which is available at
https://www.gnu.org/licenses/old-licenses/gpl-2.0-standalone.html
SPDX-License-Identifier: EPL-2.0 OR GPL-2.0-or-later
<sumoConfiguration xmlns:xsi="http://www.w3.org/2001/XMLSchema-instance" xsi:noNamespaceSchemaLocation="http://sumo.dlr.de/xsd/sumoConfiguration.xsd">

    <input>
        <net-file value="osm2.net.xml"/>
        <route-files value="gtfs_out/gtfs_publictransport.rou.xml,taxi_trips_019.rou.xml,persontrips.xml"/>
        <additional-files value="gtfs_out/gtfs_publictransport.add.xml,                            gtfs_out/pt_vtypes.xml,                            taxi_vtypes.xml,                            taxi_zones.taz.xml,                            taxi_zones.poly.xml"/>
    </input>

    <output>
        <write-license value="true"/>
        <tripinfo-output value="tripinfos.xml"/>
        <vehroute-output value="vehroutes.xml"/>
        <vehroute-output.skip-ptlines value="true"/>
    </output>

    <processing>
        <ignore-route-errors value="true"/>
        <tls.actuated.jam-threshold value="30"/>
        <default.speeddev value="0"/>
        <persontrip.walk-opposite-factor value="1.0"/>
    </processing>

    <routing>
        <persontrip.taxi.waiting-time value="30"/>
    </routing>

    <report>
        <verbose value="true"/>
        <duration-log.statistics value="true"/>
        <no-step-log value="true"/>
    </report>

</sumoConfiguration>
-->

<tripinfos xmlns:xsi="http://www.w3.org/2001/XMLSchema-instance" xsi:noNamespaceSchemaLocation="http://sumo.dlr.de/xsd/tripinfo_file.xsd">
    <tripinfo id="MQ_D5-Weekday-142900_M66_520.trimmed.0" depart="26.00" departLane="68668561#1_0" departPos="12.10" departSpeed="0.00" departDelay="0.00" arrival="85.00" arrivalLane="68668561#1_0" arrivalPos="238.42" arrivalSpeed="5.85" duration="59.00" routeLength="226.32" waitingTime="0.00" waitingCount="0" stopTime="20.00" timeLoss="18.64" rerouteNo="0" devices="tripinfo_MQ_D5-Weekday-142900_M66_520.trimmed.0" vType="bus" speedFactor="1.00" vaporized=""/>
    <tripinfo id="OH_D5-Weekday-141200_M31_327.trimmed.0" depart="60.00" departLane="195743211#1_0" departPos="12.10" departSpeed="0.00" departDelay="0.00" arrival="98.00" arrivalLane="195743211#1_0" arrivalPos="237.97" arrivalSpeed="13.85" duration="38.00" routeLength="225.87" waitingTime="1.00" waitingCount="1" stopTime="10.00" timeLoss="11.35" rerouteNo="0" devices="tripinfo_OH_D5-Weekday-141200_M31_327.trimmed.0" vType="bus" speedFactor="1.00" vaporized=""/>
    <tripinfo id="MQ_D5-Weekday-142500_M9_65.trimmed.0" depart="10.00" departLane="24263967#3_0" departPos="12.10" departSpeed="0.00" departDelay="0.00" arrival="186.00" arrivalLane="194923790#1_0" arrivalPos="298.64" arrivalSpeed="0.82" duration="176.00" routeLength="816.04" waitingTime="14.00" waitingCount="2" stopTime="40.00" timeLoss="62.69" rerouteNo="0" devices="tripinfo_MQ_D5-Weekday-142500_M9_65.trimmed.0" vType="bus" speedFactor="1.00" vaporized=""/>
    <personinfo id="p0" depart="209.00" type="DEFAULT_PEDTYPE" speedFactor="1.00" duration="18.00" waitingTime="0.00" timeLoss="1.87" traveltime="18.00">
        <walk depart="209.00" departPos="0.00" arrival="227.00" arrivalPos="24.10" duration="18.00" routeLength="22.40" timeLoss="1.87" maxSpeed="1.39" waitingTime="0.00"/>
    </personinfo>
    <tripinfo id="OF_D5-Weekday-139500_SBS15_462.trimmed.0" depart="11.00" departLane="420906662#1_0" departPos="12.10" departSpeed="0.00" departDelay="0.00" arrival="227.00" arrivalLane="5670230_1" arrivalPos="141.92" arrivalSpeed="3.53" duration="216.00" routeLength="995.44" waitingTime="36.00" waitingCount="5" stopTime="30.00" timeLoss="95.98" rerouteNo="0" devices="tripinfo_OF_D5-Weekday-139500_SBS15_462.trimmed.0" vType="bus" speedFactor="1.00" vaporized=""/>
    <tripinfo id="OF_D5-Weekday-139500_M1_139.trimmed.0" depart="21.00" departLane="5670836#1_0" departPos="12.10" departSpeed="0.00" departDelay="0.00" arrival="231.00" arrivalLane="1080982436#0_0" arrivalPos="46.13" arrivalSpeed="0.69" duration="210.00" routeLength="932.14" waitingTime="5.00" waitingCount="4" stopTime="50.00" timeLoss="76.58" rerouteNo="0" devices="tripinfo_OF_D5-Weekday-139500_M1_139.trimmed.0" vType="bus" speedFactor="1.00" vaporized=""/>
    <tripinfo id="OF_D5-Weekday-139000_M7_240.trimmed.0" depart="52.00" departLane="420895460#1_0" departPos="12.10" departSpeed="0.00" departDelay="0.00" arrival="240.00" arrivalLane="5671684#1_0" arrivalPos="229.57" arrivalSpeed="0.66" duration="188.00" routeLength="626.21" waitingTime="2.00" waitingCount="2" stopTime="88.00" timeLoss="54.39" rerouteNo="0" devices="tripinfo_OF_D5-Weekday-139000_M7_240.trimmed.0" vType="bus" speedFactor="1.00" vaporized=""/>
    <tripinfo id="MV_D5-Weekday-142800_M96_834.trimmed.0" depart="37.00" departLane="5672068#4_0" departPos="12.10" departSpeed="0.00" departDelay="0.00" arrival="300.00" arrivalLane="420623123#1_0" arrivalPos="30.56" arrivalSpeed="5.45" duration="263.00" routeLength="707.80" waitingTime="47.00" waitingCount="6" stopTime="95.00" timeLoss="111.10" rerouteNo="0" devices="tripinfo_MV_D5-Weekday-142800_M96_834.trimmed.0" vType="bus" speedFactor="1.00" vaporized=""/>
    <tripinfo id="OH_D5-Weekday-138000_M101_130.trimmed.0" depart="47.00" departLane="305323034#1_0" departPos="12.10" departSpeed="0.00" departDelay="0.00" arrival="311.00" arrivalLane="5671684#1_0" arrivalPos="229.57" arrivalSpeed="1.06" duration="264.00" routeLength="860.78" waitingTime="18.00" waitingCount="4" stopTime="116.00" timeLoss="85.48" rerouteNo="0" devices="tripinfo_OH_D5-Weekday-138000_M101_130.trimmed.0" vType="bus" speedFactor="1.00" vaporized=""/>
    <tripinfo id="MQ_D5-Weekday-141800_SBS14_760.trimmed.0" depart="57.00" departLane="-1080982436#0_0" departPos="12.10" departSpeed="0.00" departDelay="0.00" arrival="312.00" arrivalLane="474635899#1_0" arrivalPos="42.49" arrivalSpeed="0.64" duration="255.00" routeLength="1127.53" waitingTime="32.00" waitingCount="4" stopTime="51.00" timeLoss="102.53" rerouteNo="0" devices="tripinfo_MQ_D5-Weekday-141800_SBS14_760.trimmed.0" vType="bus" speedFactor="1.00" vaporized=""/>
    <tripinfo id="OH_D5-Weekday-138600_M101_136.trimmed.0" depart="32.00" departLane="496982789#1_0" departPos="12.10" departSpeed="0.00" departDelay="0.00" arrival="361.00" arrivalLane="413056164#1_0" arrivalPos="21.80" arrivalSpeed="0.92" duration="329.00" routeLength="1024.03" waitingTime="76.00" waitingCount="4" stopTime="30.00" timeLoss="137.05" rerouteNo="0" devices="tripinfo_OH_D5-Weekday-138600_M101_136.trimmed.0" vType="bus" speedFactor="1.00" vaporized=""/>
    <tripinfo id="OH_D5-Weekday-141500_M31_324.trimmed.0" depart="47.00" departLane="460657164#7_0" departPos="12.10" departSpeed="0.00" departDelay="0.00" arrival="365.00" arrivalLane="195743173#1_0" arrivalPos="181.42" arrivalSpeed="6.45" duration="318.00" routeLength="1170.00" waitingTime="16.00" waitingCount="5" stopTime="80.00" timeLoss="131.87" rerouteNo="0" devices="tripinfo_OH_D5-Weekday-141500_M31_324.trimmed.0" vType="bus" speedFactor="1.00" vaporized=""/>
    <tripinfo id="MV_D5-Weekday-143000_M96_837.trimmed.0" depart="5.00" departLane="1024634984#1_0" departPos="12.10" departSpeed="0.00" departDelay="0.00" arrival="379.00" arrivalLane="46694771#1_0" arrivalPos="191.91" arrivalSpeed="10.61" duration="374.00" routeLength="1170.29" waitingTime="30.00" waitingCount="4" stopTime="158.00" timeLoss="111.66" rerouteNo="0" devices="tripinfo_MV_D5-Weekday-143000_M96_837.trimmed.0" vType="bus" speedFactor="1.00" vaporized=""/>
    <tripinfo id="MV_D5-Weekday-140500_M116_717.trimmed.0" depart="34.00" departLane="-1081893303#0_0" departPos="12.10" departSpeed="0.00" departDelay="0.00" arrival="381.00" arrivalLane="1167939119#0_0" arrivalPos="16.55" arrivalSpeed="1.71" duration="347.00" routeLength="825.00" waitingTime="137.00" waitingCount="7" stopTime="65.00" timeLoss="210.18" rerouteNo="0" devices="tripinfo_MV_D5-Weekday-140500_M116_717.trimmed.0" vType="bus" speedFactor="1.00" vaporized=""/>
    <tripinfo id="OH_D5-Weekday-138200_M15_249.trimmed.0" depart="38.00" departLane="194923778#1_0" departPos="12.10" departSpeed="0.00" departDelay="0.00" arrival="420.00" arrivalLane="993795184_0" arrivalPos="14.04" arrivalSpeed="1.19" duration="382.00" routeLength="1319.76" waitingTime="27.00" waitingCount="4" stopTime="134.00" timeLoss="100.03" rerouteNo="0" devices="tripinfo_OH_D5-Weekday-138200_M15_249.trimmed.0" vType="bus" speedFactor="1.00" vaporized=""/>
    <tripinfo id="OH_D5-Weekday-138500_M101_125.trimmed.0" depart="12.00" departLane="652023437#10_0" departPos="12.10" departSpeed="0.00" departDelay="0.00" arrival="422.00" arrivalLane="68668517#1_0" arrivalPos="56.72" arrivalSpeed="2.96" duration="410.00" routeLength="1585.31" waitingTime="37.00" waitingCount="16" stopTime="84.00" timeLoss="211.71" rerouteNo="0" devices="tripinfo_OH_D5-Weekday-138500_M101_125.trimmed.0" vType="bus" speedFactor="1.00" vaporized=""/>
    <tripinfo id="MQ_D5-Weekday-140500_M20_165.trimmed.0" depart="60.00" departLane="-837515835#0_0" departPos="12.10" departSpeed="0.00" departDelay="0.00" arrival="430.00" arrivalLane="-5669933#0_0" arrivalPos="53.97" arrivalSpeed="1.10" duration="370.00" routeLength="1404.65" waitingTime="54.00" waitingCount="8" stopTime="73.00" timeLoss="139.78" rerouteNo="0" devices="tripinfo_MQ_D5-Weekday-140500_M20_165.trimmed.0" vType="bus" speedFactor="1.00" vaporized=""/>
    <tripinfo id="OH_D5-Weekday-136000_M101_138.trimmed.0" depart="19.00" departLane="1146402193#1_0" departPos="12.10" departSpeed="0.00" departDelay="0.00" arrival="527.00" arrivalLane="440122878#1_0" arrivalPos="321.74" arrivalSpeed="13.32" duration="508.00" routeLength="2131.66" waitingTime="69.00" waitingCount="11" stopTime="90.00" timeLoss="259.74" rerouteNo="0" devices="tripinfo_OH_D5-Weekday-136000_M101_138.trimmed.0" vType="bus" speedFactor="1.00" vaporized=""/>
    <tripinfo id="MQ_D5-Weekday-142500_SBS14_756.trimmed.0" depart="26.00" departLane="-195743554#11_0" departPos="12.10" departSpeed="0.00" departDelay="0.00" arrival="609.00" arrivalLane="194923769#1_1" arrivalPos="144.71" arrivalSpeed="8.70" duration="583.00" routeLength="2004.30" waitingTime="55.00" waitingCount="9" stopTime="208.00" timeLoss="188.70" rerouteNo="0" devices="tripinfo_MQ_D5-Weekday-142500_SBS14_756.trimmed.0" vType="bus" speedFactor="1.00" vaporized=""/>
    <tripinfo id="MQ_D5-Weekday-142500_M72_616.trimmed.0" depart="120.00" departLane="497258109#1_0" departPos="12.10" departSpeed="0.00" departDelay="0.00" arrival="720.00" arrivalLane="421851200#1_0" arrivalPos="120.44" arrivalSpeed="0.73" duration="600.00" routeLength="1329.59" waitingTime="17.00" waitingCount="5" stopTime="394.00" timeLoss="106.52" rerouteNo="0" devices="tripinfo_MQ_D5-Weekday-142500_M72_616.trimmed.0" vType="bus" speedFactor="1.00" vaporized=""/>
    <tripinfo id="OH_D5-Weekday-139400_M15_244.trimmed.0" depart="60.00" departLane="195743317#1_0" departPos="12.10" departSpeed="0.00" departDelay="0.00" arrival="729.00" arrivalLane="5670230_1" arrivalPos="141.92" arrivalSpeed="3.45" duration="669.00" routeLength="2542.49" waitingTime="92.00" waitingCount="15" stopTime="120.00" timeLoss="320.63" rerouteNo="0" devices="tripinfo_OH_D5-Weekday-139400_M15_244.trimmed.0" vType="bus" speedFactor="1.00" vaporized=""/>
    <tripinfo id="MV_D5-Weekday-140000_M4_446.trimmed.0" depart="13.00" departLane="524558206#1_0" departPos="12.10" departSpeed="0.00" departDelay="0.00" arrival="761.00" arrivalLane="440122880#1_0" arrivalPos="57.85" arrivalSpeed="4.23" duration="748.00" routeLength="2653.07" waitingTime="134.00" waitingCount="22" stopTime="124.00" timeLoss="418.69" rerouteNo="0" devices="tripinfo_MV_D5-Weekday-140000_M4_446.trimmed.0" vType="bus" speedFactor="1.00" vaporized=""/>
    <tripinfo id="MQ_D5-Weekday-143700_M9_67.trimmed.0" depart="72.00" departLane="5671659#1_0" departPos="12.10" departSpeed="0.00" departDelay="0.00" arrival="794.00" arrivalLane="46431825#1_1" arrivalPos="79.40" arrivalSpeed="0.79" duration="722.00" routeLength="2260.62" waitingTime="149.00" waitingCount="9" stopTime="201.00" timeLoss="311.95" rerouteNo="0" devices="tripinfo_MQ_D5-Weekday-143700_M9_67.trimmed.0" vType="bus" speedFactor="1.00" vaporized=""/>
    <tripinfo id="OH_D5-Weekday-142000_M101_124.trimmed.0" depart="113.00" departLane="375165666#1_0" departPos="12.10" departSpeed="0.00" departDelay="0.00" arrival="795.00" arrivalLane="652023438#1_0" arrivalPos="55.86" arrivalSpeed="0.80" duration="682.00" routeLength="2978.68" waitingTime="62.00" waitingCount="22" stopTime="101.00" timeLoss="332.51" rerouteNo="0" devices="tripinfo_OH_D5-Weekday-142000_M101_124.trimmed.0" vType="bus" speedFactor="1.00" vaporized=""/>
    <tripinfo id="MV_D5-Weekday-144000_M96_836.0" depart="0.00" departLane="46694771#1_0" departPos="12.10" departSpeed="0.00" departDelay="0.00" arrival="940.00" arrivalLane="420623123#1_0" arrivalPos="30.56" arrivalSpeed="5.49" duration="940.00" routeLength="3098.30" waitingTime="45.00" waitingCount="6" stopTime="479.00" timeLoss="194.78" rerouteNo="0" devices="tripinfo_MV_D5-Weekday-144000_M96_836.0" vType="bus" speedFactor="1.00" vaporized=""/>
    <tripinfo id="MQ_D5-Weekday-144500_M66_521.0" depart="300.00" departLane="46334588_0" departPos="12.10" departSpeed="0.00" departDelay="0.00" arrival="943.00" arrivalLane="968393476#1_0" arrivalPos="176.98" arrivalSpeed="1.57" duration="643.00" routeLength="3160.49" waitingTime="59.00" waitingCount="11" stopTime="140.00" timeLoss="239.00" rerouteNo="0" devices="tripinfo_MQ_D5-Weekday-144500_M66_521.0" vType="bus" speedFactor="1.00" vaporized=""/>
    <tripinfo id="MQ_D5-Weekday-144400_M66_523.0" depart="240.00" departLane="5670572#1_0" departPos="12.10" departSpeed="0.00" departDelay="0.00" arrival="1017.00" arrivalLane="68668561#1_0" arrivalPos="238.42" arrivalSpeed="5.43" duration="777.00" routeLength="3015.60" waitingTime="47.00" waitingCount="8" stopTime="319.00" timeLoss="187.35" rerouteNo="0" devices="tripinfo_MQ_D5-Weekday-144400_M66_523.0" vType="bus" speedFactor="1.00" vaporized=""/>
    <tripinfo id="MQ_D5-Weekday-144000_M50_360.0" depart="0.00" departLane="619280607#1_0" departPos="12.10" departSpeed="0.00" departDelay="0.00" arrival="1020.00" arrivalLane="505777317#0_0" arrivalPos="21.81" arrivalSpeed="0.79" duration="1020.00" routeLength="3396.32" waitingTime="35.00" waitingCount="9" stopTime="501.00" timeLoss="250.74" rerouteNo="0" devices="tripinfo_MQ_D5-Weekday-144000_M50_360.0" vType="bus" speedFactor="1.00" vaporized=""/>
    <tripinfo id="MV_D5-Weekday-142000_M98_912.trimmed.0" depart="60.00" departLane="806169765#7_0" departPos="12.10" departSpeed="0.00" departDelay="0.00" arrival="1088.00" arrivalLane="944990227_0" arrivalPos="51.19" arrivalSpeed="7.30" duration="1028.00" routeLength="3406.47" waitingTime="101.00" waitingCount="24" stopTime="295.00" timeLoss="436.22" rerouteNo="0" devices="tripinfo_MV_D5-Weekday-142000_M98_912.trimmed.0" vType="bus" speedFactor="1.00" vaporized=""/>
    <tripinfo id="MQ_D5-Weekday-144000_M50_361.0" depart="0.00" departLane="420904838#0_0" departPos="12.10" departSpeed="0.00" departDelay="0.00" arrival="1140.00" arrivalLane="658583343#1_0" arrivalPos="182.37" arrivalSpeed="0.62" duration="1140.00" routeLength="3660.55" waitingTime="78.00" waitingCount="17" stopTime="550.00" timeLoss="317.85" rerouteNo="0" devices="tripinfo_MQ_D5-Weekday-144000_M50_361.0" vType="bus" speedFactor="1.00" vaporized=""/>
    <tripinfo id="OH_D5-Weekday-139400_M15_250.trimmed.0" depart="40.00" departLane="457937084#1_0" departPos="12.10" departSpeed="0.00" departDelay="0.00" arrival="1182.00" arrivalLane="993795184_0" arrivalPos="14.04" arrivalSpeed="0.97" duration="1142.00" routeLength="3641.73" waitingTime="317.00" waitingCount="26" stopTime="197.00" timeLoss="561.83" rerouteNo="0" devices="tripinfo_OH_D5-Weekday-139400_M15_250.trimmed.0" vType="bus" speedFactor="1.00" vaporized=""/>
    <tripinfo id="MV_D5-Weekday-144500_M96_835.0" depart="300.00" departLane="756449859_0" departPos="12.10" departSpeed="0.00" departDelay="0.00" arrival="1219.00" arrivalLane="46694771#1_0" arrivalPos="191.91" arrivalSpeed="11.12" duration="919.00" routeLength="3031.85" waitingTime="42.00" waitingCount="11" stopTime="459.00" timeLoss="204.14" rerouteNo="0" devices="tripinfo_MV_D5-Weekday-144500_M96_835.0" vType="bus" speedFactor="1.00" vaporized=""/>
    <tripinfo id="MQ_D5-Weekday-143300_SBS14_753.trimmed.0" depart="71.00" departLane="1317731497#1_0" departPos="12.10" departSpeed="0.00" departDelay="0.00" arrival="1222.00" arrivalLane="474635899#1_0" arrivalPos="42.49" arrivalSpeed="0.71" duration="1151.00" routeLength="4188.14" waitingTime="121.00" waitingCount="22" stopTime="372.00" timeLoss="380.59" rerouteNo="0" devices="tripinfo_MQ_D5-Weekday-143300_SBS14_753.trimmed.0" vType="bus" speedFactor="1.00" vaporized=""/>
    <tripinfo id="OH_D5-Weekday-140600_M101_140.trimmed.0" depart="15.00" departLane="1135346523#1_0" departPos="12.10" departSpeed="0.00" departDelay="0.00" arrival="1244.00" arrivalLane="413056164#1_0" arrivalPos="21.80" arrivalSpeed="0.88" duration="1229.00" routeLength="4695.05" waitingTime="185.00" waitingCount="29" stopTime="190.00" timeLoss="544.84" rerouteNo="0" devices="tripinfo_OH_D5-Weekday-140600_M101_140.trimmed.0" vType="bus" speedFactor="1.00" vaporized=""/>
    <tripinfo id="MV_D5-Weekday-144000_M5_542.0" depart="0.00" departLane="-164756872#1_0" departPos="12.10" departSpeed="0.00" departDelay="0.00" arrival="1260.00" arrivalLane="195743150#1_0" arrivalPos="133.27" arrivalSpeed="13.30" duration="1260.00" routeLength="4874.09" waitingTime="102.00" waitingCount="30" stopTime="275.00" timeLoss="566.19" rerouteNo="0" devices="tripinfo_MV_D5-Weekday-144000_M5_542.0" vType="bus" speedFactor="1.00" vaporized=""/>
    <tripinfo id="MQ_D5-Weekday-143000_M55_415.trimmed.0" depart="48.00" departLane="1027206709#1_0" departPos="12.10" departSpeed="0.00" departDelay="0.00" arrival="1270.00" arrivalLane="-5669933#0_0" arrivalPos="53.97" arrivalSpeed="1.20" duration="1222.00" routeLength="4582.51" waitingTime="157.00" waitingCount="31" stopTime="250.00" timeLoss="511.18" rerouteNo="0" devices="tripinfo_MQ_D5-Weekday-143000_M55_415.trimmed.0" vType="bus" speedFactor="1.00" vaporized=""/>
    <tripinfo id="MV_D5-Weekday-141000_M4_445.trimmed.0" depart="131.00" departLane="195743141#1_0" departPos="12.10" departSpeed="0.00" departDelay="0.00" arrival="1324.00" arrivalLane="46490538#4_0" arrivalPos="48.89" arrivalSpeed="4.08" duration="1193.00" routeLength="4087.87" waitingTime="264.00" waitingCount="24" stopTime="288.00" timeLoss="566.38" rerouteNo="0" devices="tripinfo_MV_D5-Weekday-141000_M4_445.trimmed.0" vType="bus" speedFactor="1.00" vaporized=""/>
    <tripinfo id="MQ_D5-Weekday-144000_SBS14_758.0" depart="0.00" departLane="159657620#1_0" departPos="12.10" departSpeed="0.00" departDelay="0.00" arrival="1372.00" arrivalLane="194923769#1_1" arrivalPos="144.71" arrivalSpeed="8.94" duration="1372.00" routeLength="5240.71" waitingTime="279.00" waitingCount="40" stopTime="221.00" timeLoss="657.84" rerouteNo="0" devices="tripinfo_MQ_D5-Weekday-144000_SBS14_758.0" vType="bus" speedFactor="1.00" vaporized=""/>
    <tripinfo id="OF_D5-Weekday-141000_M1_137.trimmed.0" depart="33.00" departLane="1173357723#1_0" departPos="12.10" departSpeed="0.00" departDelay="0.00" arrival="1380.00" arrivalLane="5671684#1_0" arrivalPos="229.57" arrivalSpeed="0.77" duration="1347.00" routeLength="4931.13" waitingTime="139.00" waitingCount="26" stopTime="374.00" timeLoss="597.78" rerouteNo="0" devices="tripinfo_OF_D5-Weekday-141000_M1_137.trimmed.0" vType="bus" speedFactor="1.00" vaporized=""/>
    <tripinfo id="OH_D5-Weekday-140000_M101_134.trimmed.0" depart="48.00" departLane="652023437#4_0" departPos="12.10" departSpeed="0.00" departDelay="0.00" arrival="1398.00" arrivalLane="5671684#1_0" arrivalPos="229.57" arrivalSpeed="0.73" duration="1350.00" routeLength="4617.01" waitingTime="162.00" waitingCount="30" stopTime="415.00" timeLoss="585.28" rerouteNo="0" devices="tripinfo_OH_D5-Weekday-140000_M101_134.trimmed.0" vType="bus" speedFactor="1.00" vaporized=""/>
    <tripinfo id="OH_D5-Weekday-137500_M101_139.trimmed.0" depart="24.00" departLane="455687907#1_0" departPos="12.10" departSpeed="0.00" departDelay="0.00" arrival="1409.00" arrivalLane="440122878#1_0" arrivalPos="321.74" arrivalSpeed="13.39" duration="1385.00" routeLength="4738.90" waitingTime="154.00" waitingCount="30" stopTime="446.00" timeLoss="592.73" rerouteNo="0" devices="tripinfo_OH_D5-Weekday-137500_M101_139.trimmed.0" vType="bus" speedFactor="1.00" vaporized=""/>
    <tripinfo id="MQ_D5-Weekday-144300_M72_618.0" depart="180.00" departLane="46694752#1_0" departPos="12.10" departSpeed="0.00" departDelay="0.00" arrival="1447.00" arrivalLane="169381957#1_0" arrivalPos="201.53" arrivalSpeed="0.88" duration="1267.00" routeLength="4479.81" waitingTime="240.00" waitingCount="23" stopTime="334.00" timeLoss="579.67" rerouteNo="0" devices="tripinfo_MQ_D5-Weekday-144300_M72_618.0" vType="bus" speedFactor="1.00" vaporized=""/>
    <tripinfo id="MQ_D5-Weekday-143400_M55_414.trimmed.0" depart="47.00" departLane="955293895#3_0" departPos="12.10" departSpeed="0.00" departDelay="0.00" arrival="1450.00" arrivalLane="127693103#4_0" arrivalPos="54.66" arrivalSpeed="1.08" duration="1403.00" routeLength="4569.95" waitingTime="322.00" waitingCount="36" stopTime="230.00" timeLoss="763.22" rerouteNo="0" devices="tripinfo_MQ_D5-Weekday-143400_M55_414.trimmed.0" vType="bus" speedFactor="1.00" vaporized=""/>
    <tripinfo id="OH_D5-Weekday-140600_M15_253.trimmed.0" depart="32.00" departLane="264546995#1_0" departPos="12.10" departSpeed="0.00" departDelay="0.00" arrival="1454.00" arrivalLane="5670230_1" arrivalPos="141.92" arrivalSpeed="4.06" duration="1422.00" routeLength="5672.08" waitingTime="216.00" waitingCount="35" stopTime="250.00" timeLoss="663.44" rerouteNo="0" devices="tripinfo_OH_D5-Weekday-140600_M15_253.trimmed.0" vType="bus" speedFactor="1.00" vaporized=""/>
    <tripinfo id="OH_D5-Weekday-140500_M101_126.trimmed.0" depart="53.00" departLane="375165666#1_0" departPos="12.10" departSpeed="0.00" departDelay="0.00" arrival="1456.00" arrivalLane="68668517#1_0" arrivalPos="56.72" arrivalSpeed="3.04" duration="1403.00" routeLength="5337.52" waitingTime="144.00" waitingCount="43" stopTime="257.00" timeLoss="727.75" rerouteNo="0" devices="tripinfo_OH_D5-Weekday-140500_M101_126.trimmed.0" vType="bus" speedFactor="1.00" vaporized=""/>
    <tripinfo id="OH_D5-Weekday-143500_M31_326.trimmed.0" depart="54.00" departLane="-5672752#1_0" departPos="12.10" departSpeed="0.00" departDelay="0.00" arrival="1611.00" arrivalLane="195743173#1_0" arrivalPos="181.42" arrivalSpeed="6.13" duration="1557.00" routeLength="5153.00" waitingTime="426.00" waitingCount="29" stopTime="252.00" timeLoss="900.09" rerouteNo="0" devices="tripinfo_OH_D5-Weekday-143500_M31_326.trimmed.0" vType="bus" speedFactor="1.00" vaporized=""/>
    <tripinfo id="MV_D5-Weekday-145200_M96_837.0" depart="720.00" departLane="46694771#1_0" departPos="12.10" departSpeed="0.00" departDelay="0.00" arrival="1675.00" arrivalLane="420623123#1_0" arrivalPos="30.56" arrivalSpeed="5.41" duration="955.00" routeLength="3098.30" waitingTime="88.00" waitingCount="15" stopTime="426.00" timeLoss="262.84" rerouteNo="0" devices="tripinfo_MV_D5-Weekday-145200_M96_837.0" vType="bus" speedFactor="1.00" vaporized=""/>
    <tripinfo id="OH_D5-Weekday-144100_M31_325.0" depart="60.00" departLane="195743173#1_0" departPos="12.10" departSpeed="0.00" departDelay="0.00" arrival="1788.00" arrivalLane="195743211#1_0" arrivalPos="237.97" arrivalSpeed="13.51" duration="1728.00" routeLength="6447.43" waitingTime="350.00" waitingCount="42" stopTime="270.00" timeLoss="944.69" rerouteNo="0" devices="tripinfo_OH_D5-Weekday-144100_M31_325.0" vType="bus" speedFactor="1.00" vaporized=""/>
    <personinfo id="p1" depart="662.00" type="DEFAULT_PEDTYPE" speedFactor="1.00" duration="1163.00" waitingTime="11.00" timeLoss="134.89" traveltime="1163.00">
        <walk depart="662.00" departPos="0.00" arrival="1091.00" arrivalPos="0.00" duration="429.00" routeLength="528.52" timeLoss="48.47" maxSpeed="1.39" waitingTime="2.00"/>
        <access stop="401271_0" depart="1091.00" arrival="1092.00" duration="1.00" routeLength="2.72"/>
        <walk depart="1092.00" departPos="43.58" arrival="1825.00" arrivalPos="0.20" duration="733.00" routeLength="898.03" timeLoss="86.42" maxSpeed="1.39" waitingTime="9.00"/>
    </personinfo>
    <tripinfo id="OH_D5-Weekday-140600_M15_251.trimmed.0" depart="62.00" departLane="420872193#4_0" departPos="12.10" departSpeed="0.00" departDelay="0.00" arrival="1918.00" arrivalLane="993795184_0" arrivalPos="14.04" arrivalSpeed="1.93" duration="1856.00" routeLength="5625.46" waitingTime="552.00" waitingCount="39" stopTime="317.00" timeLoss="980.74" rerouteNo="0" devices="tripinfo_OH_D5-Weekday-140600_M15_251.trimmed.0" vType="bus" speedFactor="1.00" vaporized=""/>
    <tripinfo id="MQ_D5-Weekday-145000_M72_617.0" depart="600.00" departLane="-169381957#1_0" departPos="12.10" departSpeed="0.00" departDelay="0.00" arrival="1920.00" arrivalLane="421851200#1_0" arrivalPos="120.44" arrivalSpeed="0.71" duration="1320.00" routeLength="4134.45" waitingTime="235.00" waitingCount="25" stopTime="416.00" timeLoss="582.56" rerouteNo="0" devices="tripinfo_MQ_D5-Weekday-145000_M72_617.0" vType="bus" speedFactor="1.00" vaporized=""/>
    <tripinfo id="MQ_D5-Weekday-146000_M66_522.0" depart="1200.00" departLane="5670572#1_0" departPos="12.10" departSpeed="0.00" departDelay="0.00" arrival="1951.00" arrivalLane="68668561#1_0" arrivalPos="238.42" arrivalSpeed="5.92" duration="751.00" routeLength="3015.60" waitingTime="40.00" waitingCount="6" stopTime="315.00" timeLoss="165.35" rerouteNo="0" devices="tripinfo_MQ_D5-Weekday-146000_M66_522.0" vType="bus" speedFactor="1.00" vaporized=""/>
    <tripinfo id="OF_D5-Weekday-141500_M1_140.trimmed.0" depart="19.00" departLane="421853641#1_0" departPos="12.10" departSpeed="0.00" departDelay="0.00" arrival="2033.00" arrivalLane="1080982436#0_0" arrivalPos="46.13" arrivalSpeed="1.15" duration="2014.00" routeLength="7423.93" waitingTime="468.00" waitingCount="60" stopTime="280.00" timeLoss="1080.86" rerouteNo="0" devices="tripinfo_OF_D5-Weekday-141500_M1_140.trimmed.0" vType="bus" speedFactor="1.00" vaporized=""/>
    <tripinfo id="MV_D5-Weekday-143500_M116_718.trimmed.0" depart="52.00" departLane="-664893485#39_0" departPos="12.10" departSpeed="0.00" departDelay="0.00" arrival="2034.00" arrivalLane="1167939119#0_0" arrivalPos="16.55" arrivalSpeed="2.02" duration="1982.00" routeLength="7169.77" waitingTime="307.00" waitingCount="45" stopTime="380.00" timeLoss="973.71" rerouteNo="0" devices="tripinfo_MV_D5-Weekday-143500_M116_718.trimmed.0" vType="bus" speedFactor="1.00" vaporized=""/>
    <tripinfo id="OH_D5-Weekday-145000_M101_128.0" depart="600.00" departLane="196117006#1_0" departPos="12.10" departSpeed="0.00" departDelay="0.00" arrival="2074.00" arrivalLane="652023438#1_0" arrivalPos="55.86" arrivalSpeed="0.74" duration="1474.00" routeLength="7192.21" waitingTime="213.00" waitingCount="45" stopTime="130.00" timeLoss="719.21" rerouteNo="0" devices="tripinfo_OH_D5-Weekday-145000_M101_128.0" vType="bus" speedFactor="1.00" vaporized=""/>
    <tripinfo id="MQ_D5-Weekday-144800_SBS14_761.0" depart="480.00" departLane="194923769#1_0" departPos="12.10" departSpeed="0.00" departDelay="0.00" arrival="2087.00" arrivalLane="474635899#1_0" arrivalPos="42.49" arrivalSpeed="1.17" duration="1607.00" routeLength="5877.95" waitingTime="181.00" waitingCount="27" stopTime="492.00" timeLoss="564.39" rerouteNo="0" devices="tripinfo_MQ_D5-Weekday-144800_SBS14_761.0" vType="bus" speedFactor="1.00" vaporized=""/>
    <tripinfo id="OH_D5-Weekday-139000_M101_142.trimmed.0" depart="55.00" departLane="-420881457#0_0" departPos="12.10" departSpeed="0.00" departDelay="0.00" arrival="2100.00" arrivalLane="440122878#1_0" arrivalPos="321.74" arrivalSpeed="13.31" duration="2045.00" routeLength="7023.05" waitingTime="217.00" waitingCount="44" stopTime="660.00" timeLoss="869.40" rerouteNo="0" devices="tripinfo_OH_D5-Weekday-139000_M101_142.trimmed.0" vType="bus" speedFactor="1.00" vaporized=""/>
    <tripinfo id="MQ_D5-Weekday-146500_M66_523.0" depart="1500.00" departLane="46334588_0" departPos="12.10" departSpeed="0.00" departDelay="0.00" arrival="2157.00" arrivalLane="968393476#1_0" arrivalPos="176.98" arrivalSpeed="1.78" duration="657.00" routeLength="3160.49" waitingTime="76.00" waitingCount="11" stopTime="140.00" timeLoss="253.04" rerouteNo="0" devices="tripinfo_MQ_D5-Weekday-146500_M66_523.0" vType="bus" speedFactor="1.00" vaporized=""/>
    <tripinfo id="MV_D5-Weekday-142000_M4_452.trimmed.0" depart="76.00" departLane="-169381957#1_0" departPos="12.10" departSpeed="0.00" departDelay="0.00" arrival="2172.00" arrivalLane="440122880#1_0" arrivalPos="57.85" arrivalSpeed="4.58" duration="2096.00" routeLength="9281.80" waitingTime="306.00" waitingCount="50" stopTime="370.00" timeLoss="1037.19" rerouteNo="0" devices="tripinfo_MV_D5-Weekday-142000_M4_452.trimmed.0" vType="bus" speedFactor="1.00" vaporized=""/>