<?xml version="1.0" encoding="UTF-8"?>

<!-- generated on 2025-10-26T22:36:29.169655+00:00 by Eclipse SUMO GUI v1_24_0+1451-23d18e1e926
This data file and the accompanying materials
are made available under the terms of the Eclipse Public License v2.0
which accompanies this distribution, and is available at
http://www.eclipse.org/legal/epl-v20.html
This file may also be made available under the following Secondary
Licenses when the conditions for such availability set forth in the Eclipse
Public License 2.0 are satisfied: GNU General Public License, version 2
or later which is available at
https://www.gnu.org/licenses/old-licenses/gpl-2.0-standalone.html
SPDX-License-Identifier: EPL-2.0 OR GPL-2.0-or-later
<sumoConfiguration xmlns:xsi="http://www.w3.org/2001/XMLSchema-instance" xsi:noNamespaceSchemaLocation="http://sumo.dlr.de/xsd/sumoConfiguration.xsd">

    <input>
        <net-file value="osm2.net.xml"/>
        <route-files value="gtfs_out/gtfs_publictransport.rou.xml,taxi_trips_019.rou.xml,persontrips.xml"/>
        <additional-files value="gtfs_out/gtfs_publictransport.add.xml,                            gtfs_out/pt_vtypes.xml,                            taxi_vtypes.xml,                            taxi_zones.taz.xml,                            taxi_zones.poly.xml"/>
    </input>

    <output>
        <write-license value="true"/>
        <tripinfo-output value="tripinfos.xml"/>
        <vehroute-output value="vehroutes.xml"/>
        <vehroute-output.skip-ptlines value="true"/>
    </output>

    <processing>
        <ignore-route-errors value="true"/>
        <tls.actuated.jam-threshold value="30"/>
        <default.speeddev value="0"/>
        <persontrip.walk-opposite-factor value="1.0"/>
    </processing>

    <routing>
        <persontrip.taxi.waiting-time value="400"/>
    </routing>

    <report>
        <verbose value="true"/>
        <duration-log.statistics value="true"/>
        <no-step-log value="true"/>
    </report>

</sumoConfiguration>
-->

<routes xmlns:xsi="http://www.w3.org/2001/XMLSchema-instance" xsi:noNamespaceSchemaLocation="http://sumo.dlr.de/xsd/routes_file.xsd">
    <person id="p0" depart="209.00" arrival="2695.00">
        <ride from="5673430#2" to="5673430#2" arrivalPos="38.60" lines="taxi"/>
        <walk edges="46334566#0"/>
    </person>

    <person id="p1" depart="662.00" arrival="3198.00">
        <ride from="497264364#1" to="-44164416#0" arrivalPos="2.00" lines="taxi"/>
    </person>

    <person id="p16" depart="3576.00" arrival="3864.00">
        <ride from="1370835885#3" to="1032460514#0" arrivalPos="2.00" lines="taxi"/>
    </person>

    <person id="p17" depart="4111.00" arrival="4290.00">
        <ride from="980855831#1" to="46613662#1" arrivalPos="2.00" lines="taxi"/>
    </person>

    <person id="p11" depart="2875.00" arrival="4628.00">
        <ride from="1354419960#0" to="1051734606#1" arrivalPos="1.99" lines="taxi"/>
    </person>

    <person id="p5" depart="1613.00" arrival="4661.00">
        <ride from="1080982427#0" to="485139335" arrivalPos="2.00" lines="taxi"/>
    </person>

    <person id="p15" depart="3492.00" arrival="4837.00">
        <ride from="1315848397#1" to="505317783#1" arrivalPos="1.98" lines="taxi"/>
    </person>

    <person id="p10" depart="2771.00" arrival="5170.00">
        <ride from="1156810185#1" to="194923811#1" arrivalPos="2.00" lines="taxi"/>
    </person>

    <person id="p2" depart="782.00" arrival="5183.00">
        <ride from="420598232#0" to="46613661#1" arrivalPos="2.00" lines="taxi"/>
    </person>

    <person id="p4" depart="1307.00" arrival="5644.00">
        <ride from="46443582#0" to="1071929277#7" arrivalPos="2.00" lines="taxi"/>
    </person>

    <person id="p13" depart="3219.00" arrival="5756.00">
        <ride from="1156810185#1" to="46334603#0" arrivalPos="21.61" lines="taxi"/>
        <walk edges="589494594#1"/>
    </person>

    <person id="p25" depart="5861.00" arrival="6043.00">
        <ride from="1135614655#1" to="1051734606#1" arrivalPos="1.99" lines="taxi"/>
    </person>

    <person id="p12" depart="2984.00" arrival="6088.00">
        <ride from="993510830#1" to="-1159051925#0" arrivalPos="2.00" lines="taxi"/>
    </person>

    <person id="p6" depart="1793.00" arrival="6165.00">
        <ride from="1315848397#1" to="226041024#1" arrivalPos="1.98" lines="taxi"/>
    </person>

    <person id="p9" depart="2502.00" arrival="6265.00">
        <ride from="1315848397#1" to="420899372#1" arrivalPos="2.00" lines="taxi"/>
    </person>

    <person id="p8" depart="1995.00" arrival="6378.00">
        <ride from="980855831#1" to="122660454" arrivalPos="693.70" lines="taxi"/>
        <walk edges="870681743"/>
    </person>

    <person id="p20" depart="4516.00" arrival="7022.00">
        <ride from="194923795#8" to="1080982440#1" arrivalPos="1.97" lines="taxi"/>
    </person>

    <person id="p3" depart="1162.00" arrival="7181.00">
        <ride from="1148931681#1" to="46334603#0" arrivalPos="21.61" lines="taxi"/>
        <walk edges="589494594#1"/>
    </person>

    <person id="p21" depart="4784.00" arrival="7193.00">
        <ride from="1318001658#1" to="496979224#1" arrivalPos="0.20" lines="taxi"/>
        <walk edges="-1080982436#1"/>
    </person>

    <person id="p7" depart="1882.00" arrival="7441.00">
        <ride from="420598232#0" to="420905717#1" arrivalPos="2.00" lines="taxi"/>
    </person>

    <person id="p22" depart="5262.00" arrival="7889.00">
        <ride from="1266830894#0" to="420905717#1" arrivalPos="1.99" lines="taxi"/>
    </person>

    <person id="p23" depart="5350.00" arrival="8008.00">
        <ride from="32962789" to="-1159051925#0" arrivalPos="1.99" lines="taxi"/>
    </person>

    <person id="p27" depart="6285.00" arrival="8041.00">
        <ride from="195743342#10" to="-1159051925#0" arrivalPos="1.99" lines="taxi"/>
    </person>

    <person id="p28" depart="6816.00" arrival="8205.00">
        <ride from="1148931681#1" to="46334603#0" arrivalPos="21.61" lines="taxi"/>
        <walk edges="589494594#1"/>
    </person>

    <person id="p32" depart="8111.00" arrival="8323.00">
        <ride from="36806661" to="46492008" arrivalPos="2.00" lines="taxi"/>
    </person>

    <person id="p33" depart="8177.00" arrival="8334.00">
        <ride from="1414986306#2" to="1414986306#2" arrivalPos="0.24" lines="taxi"/>
        <walk edges="-1414986306#2"/>
    </person>

    <person id="p26" depart="6082.00" arrival="8533.00">
        <ride from="420598232#0" to="420905717#1" arrivalPos="1.99" lines="taxi"/>
    </person>

    <person id="p31" depart="7609.00" arrival="8704.00">
        <ride from="852992099#0" to="630828595#5" arrivalPos="0.20" lines="taxi"/>
        <walk edges="-591772210#0"/>
    </person>

    <person id="p18" depart="4259.00" arrival="8717.00">
        <ride from="1148931681#1" to="46334603#0" arrivalPos="21.61" lines="taxi"/>
        <walk edges="589494594#1"/>
    </person>

    <person id="p39" depart="9263.00" arrival="9304.00">
        <ride from="1414986306#2" to="1414986306#2" arrivalPos="0.25" lines="taxi"/>
        <walk edges="-1414986306#2"/>
    </person>

    <person id="p19" depart="4310.00" arrival="9367.00">
        <ride from="420598232#0" to="46240148#1" arrivalPos="1.98" lines="taxi"/>
    </person>

    <person id="p34" depart="8492.00" arrival="9447.00">
        <ride from="618990022#2" to="1211612937#0" arrivalPos="23.95" lines="taxi"/>
        <walk edges="1211612938"/>
    </person>

    <person id="p24" depart="5745.00" arrival="9580.00">
        <ride from="32962789" to="122660454" arrivalPos="693.70" lines="taxi"/>
        <walk edges="870681743"/>
    </person>

    <person id="p29" depart="7033.00" arrival="9648.00">
        <ride from="980855831#1" to="-194923764#4" arrivalPos="162.67" lines="taxi"/>
        <walk edges="-1414986306#2"/>
    </person>

    <person id="p30" depart="7325.00" arrival="9688.00">
        <ride from="1156810185#1" to="46334603#0" arrivalPos="21.61" lines="taxi"/>
        <walk edges="589494594#1"/>
    </person>

    <person id="p36" depart="8810.00" arrival="10888.00">
        <ride from="5673430#2" to="22941939" arrivalPos="2.00" lines="taxi"/>
    </person>

    <person id="p44" depart="10778.00" arrival="11029.00">
        <ride from="420883170#0" to="420883170#0" arrivalPos="24.10" lines="taxi"/>
        <walk edges="420883174#1"/>
    </person>

    <person id="p40" depart="9548.00" arrival="11273.00">
        <ride from="195743342#10" to="-1159051925#0" arrivalPos="1.99" lines="taxi"/>
    </person>

    <person id="p38" depart="8930.00" arrival="11339.00">
        <ride from="1266830894#0" to="485139335" arrivalPos="1.99" lines="taxi"/>
    </person>

    <person id="p37" depart="8857.00" arrival="11356.00">
        <ride from="169383514#0" to="5670877#1" arrivalPos="1.99" lines="taxi"/>
    </person>

    <person id="p35" depart="8606.00" arrival="12511.00">
        <ride from="980855831#1" to="122660454" arrivalPos="693.70" lines="taxi"/>
        <walk edges="870681743"/>
    </person>

    <vehicle id="taxi17" type="shared_bike" depart="2704.00" departLane="0" departSpeed="5.55" fromTaz="41" toTaz="263" speedFactor="1.0000" arrival="12548.00">
        <routeDistribution>
            <route replacedOnEdge="980855833#0" reason="taxi:prepare_dispatch" replacedAtTime="3600.00" probability="0" edges="980855833#0 980855832#1 980855831#1 840996403#1 195743338#0 195743338#3 195743338#6 195743338#9 993517671#1 195743332#1 195743332#4 195743332#7 195743332#10 195743332#13 195743332#15 1378258842#0 1378258841#1 587061863#1 195743334#1 195743334#4 195743334#7 195743334#10 195743334#13 440122865#1 440122867#1 440122867#4 440122867#7 1217393802#1 68668564#1 68668564#2 68668532#0 68668532#1 68668532#2 68668532#3 68668532#4 68668532#7 5670797#1 5670797#4 5670797#8 5670797#11 5670797#14 1024556672#1 1024556673#1 1024556689#0 1024556674#1"/>
            <route replacedOnEdge="980855833#0" reason="taxi:dispatch" replacedAtTime="3600.00" probability="0" edges="980855833#0 1370835885#3 1032460514#0"/>
            <route replacedOnEdge="1032460514#0" replacedOnIndex="11" reason="taxi:prepare_dispatch" replacedAtTime="4260.00" probability="0" edges="980855833#0 1032460512#1 1032460512#4 1032460514#0 806195280#37 806195280#38 806195280#39 846362785 1370835885#1 1370835885#2 1370835885#3 1032460514#0"/>
            <route replacedOnEdge="1032460514#0" replacedOnIndex="11" reason="taxi:dispatch" replacedAtTime="4260.00" probability="0" edges="980855833#0 1032460512#1 1032460512#4 1032460514#0 806195280#37 806195280#38 806195280#39 846362785 1370835885#1 1370835885#2 1370835885#3 1032460514#0 1148931681#1 46334603#0"/>
            <route replacedOnEdge="46334603#0" replacedOnIndex="226" reason="taxi:prepare_dispatch" replacedAtTime="10020.00" probability="0" edges="980855833#0 1032460512#1 1032460512#4 1032460514#0 806195280#37 806195280#38 806195280#39 846362785 1370835885#1 1370835885#2 1370835885#3 1032460514#0 1032460514#2 584971412#9 584971412#12 584971412#15 584971412#18 584971412#21 584971412#24 196117041#1 993495873#1 993495871#1 993495869#1 993495868#1 993495868#4 993495868#7 993495867#0 993495865#1 993495865#4 353220112#1 353220115#1 353220115#4 353220115#7 353220115#10 353220115#13 353220115#16 353220115#19 353220115#22 353220115#25 353220115#28 1053630777#0 1106469540#1 1106469540#4 1106469540#7 1106469540#10 1106469540#13 1106469540#16 1106469540#20 1106469541#0 387128267#1 387128267#4 387128267#8 387128267#11 387128267#14 387128267#17 387128267#20 1106469543#0 1106469542#1 1106469542#4 1106469542#7 1106469542#10 1106469545#0 1106469544#1 945384089#1 945384091#1 1106471567#1 1106471567#4 420496091#1 420496091#4 420496091#7 1106471568#0 458180200#1 569345480#0 569345474#1 569345486#0 588157336#1 569345502#1 569345502#4 1250866957#1 458180195#1 458180193#1 458180193#4 458180193#7 458180189#1 458180187#1 458180187#4 458180187#7 196117039#1 496990647#1 496990647#4 496990647#7 630828556#1 1316295726#1 458177133#1 458177133#5 458177133#9 458177129#1 518451322#1 541351705#1 458166896#1 458166896#5 458166896#9 1135346523#1 1051841852#1 1051841854#1 1051841856#1 1051841857#1 871725893#1 1037772578#1 1037772579#1 -1088320651#1 -1088320650#2 -814612602#21 -814612602#16 -814612602#11 -814612602#6 -814612602#1 -5671774#18 -5671774#13 -5671774#8 -5671774#3 -496992369#23 -496992369#18 -496992369#13 -496992369#8 -496992369#3 -438389785#2 584971395#1 630828592#4 1315845427#0 1315845428#1 945523294#0 276670360#1 1315845433#0 5670594#1 5670594#5 5670594#9 349873702#1 420355076#1 40709921#1 1343731013#0 112116234#1 112116234#5 112116234#9 420355077#1 165777195#0 997125811#1 675967321#1 420355081#1 1238545752#0 1333472258#1 496982789#1 496982789#5 165775306#0 222299242#0 -414751458#1 -42786502#1 -1333438297#0 -1329888403#0 -420890077#0 496990645 414744944 -524361790 194923778#1 1333741754#1 525038147 496978219#1 525658419#1 525656852#0 525656847#1 46154338#1 847932331#1 1127576696#1 1135576504#1 1148931681#1 5670267#1 5670267#2 955134530#0 955134530#1 1330631026 614572151#1 195743264#1 195743264#3 438900013#1 1021063591 420809440#0 195743228#1 421832645#0 222299274#1 1341647375#0 195743229#0 195743226#1 516664210#1 516664206#0 413050334#1 1362576631#0 1362576631#1 1135361169#1 1135361170#0 496982371#0 588157330 438370108#0 438370108#2 420809441 1362575285#1 420809420#0 420809420#1 420809420#5 420809420#6 420809420#8 420809420#9 195743557#0 195743557#1 195743557#2 195743557#3 195743557#7 195743557#8 420522049#1 420522049#2 420522049#3 420522049#7 473884145#0 473884145#2 1059329369 1021037338 1187622117#0 46334603#0"/>
            <route replacedOnEdge="46334603#0" replacedOnIndex="226" reason="taxi:dispatch" replacedAtTime="10020.00" probability="0" edges="980855833#0 1032460512#1 1032460512#4 1032460514#0 806195280#37 806195280#38 806195280#39 846362785 1370835885#1 1370835885#2 1370835885#3 1032460514#0 1032460514#2 584971412#9 584971412#12 584971412#15 584971412#18 584971412#21 584971412#24 196117041#1 993495873#1 993495871#1 993495869#1 993495868#1 993495868#4 993495868#7 993495867#0 993495865#1 993495865#4 353220112#1 353220115#1 353220115#4 353220115#7 353220115#10 353220115#13 353220115#16 353220115#19 353220115#22 353220115#25 353220115#28 1053630777#0 1106469540#1 1106469540#4 1106469540#7 1106469540#10 1106469540#13 1106469540#16 1106469540#20 1106469541#0 387128267#1 387128267#4 387128267#8 387128267#11 387128267#14 387128267#17 387128267#20 1106469543#0 1106469542#1 1106469542#4 1106469542#7 1106469542#10 1106469545#0 1106469544#1 945384089#1 945384091#1 1106471567#1 1106471567#4 420496091#1 420496091#4 420496091#7 1106471568#0 458180200#1 569345480#0 569345474#1 569345486#0 588157336#1 569345502#1 569345502#4 1250866957#1 458180195#1 458180193#1 458180193#4 458180193#7 458180189#1 458180187#1 458180187#4 458180187#7 196117039#1 496990647#1 496990647#4 496990647#7 630828556#1 1316295726#1 458177133#1 458177133#5 458177133#9 458177129#1 518451322#1 541351705#1 458166896#1 458166896#5 458166896#9 1135346523#1 1051841852#1 1051841854#1 1051841856#1 1051841857#1 871725893#1 1037772578#1 1037772579#1 -1088320651#1 -1088320650#2 -814612602#21 -814612602#16 -814612602#11 -814612602#6 -814612602#1 -5671774#18 -5671774#13 -5671774#8 -5671774#3 -496992369#23 -496992369#18 -496992369#13 -496992369#8 -496992369#3 -438389785#2 584971395#1 630828592#4 1315845427#0 1315845428#1 945523294#0 276670360#1 1315845433#0 5670594#1 5670594#5 5670594#9 349873702#1 420355076#1 40709921#1 1343731013#0 112116234#1 112116234#5 112116234#9 420355077#1 165777195#0 997125811#1 675967321#1 420355081#1 1238545752#0 1333472258#1 496982789#1 496982789#5 165775306#0 222299242#0 -414751458#1 -42786502#1 -1333438297#0 -1329888403#0 -420890077#0 496990645 414744944 -524361790 194923778#1 1333741754#1 525038147 496978219#1 525658419#1 525656852#0 525656847#1 46154338#1 847932331#1 1127576696#1 1135576504#1 1148931681#1 5670267#1 5670267#2 955134530#0 955134530#1 1330631026 614572151#1 195743264#1 195743264#3 438900013#1 1021063591 420809440#0 195743228#1 421832645#0 222299274#1 1341647375#0 195743229#0 195743226#1 516664210#1 516664206#0 413050334#1 1362576631#0 1362576631#1 1135361169#1 1135361170#0 496982371#0 588157330 438370108#0 438370108#2 420809441 1362575285#1 420809420#0 420809420#1 420809420#5 420809420#6 420809420#8 420809420#9 195743557#0 195743557#1 195743557#2 195743557#3 195743557#7 195743557#8 420522049#1 420522049#2 420522049#3 420522049#7 473884145#0 473884145#2 1059329369 1021037338 1187622117#0 46334603#0 1343181788#0 68668554#1"/>
            <route edges="980855833#0 1032460512#1 1032460512#4 1032460514#0 806195280#37 806195280#38 806195280#39 846362785 1370835885#1 1370835885#2 1370835885#3 1032460514#0 1032460514#2 584971412#9 584971412#12 584971412#15 584971412#18 584971412#21 584971412#24 196117041#1 993495873#1 993495871#1 993495869#1 993495868#1 993495868#4 993495868#7 993495867#0 993495865#1 993495865#4 353220112#1 353220115#1 353220115#4 353220115#7 353220115#10 353220115#13 353220115#16 353220115#19 353220115#22 353220115#25 353220115#28 1053630777#0 1106469540#1 1106469540#4 1106469540#7 1106469540#10 1106469540#13 1106469540#16 1106469540#20 1106469541#0 387128267#1 387128267#4 387128267#8 387128267#11 387128267#14 387128267#17 387128267#20 1106469543#0 1106469542#1 1106469542#4 1106469542#7 1106469542#10 1106469545#0 1106469544#1 945384089#1 945384091#1 1106471567#1 1106471567#4 420496091#1 420496091#4 420496091#7 1106471568#0 458180200#1 569345480#0 569345474#1 569345486#0 588157336#1 569345502#1 569345502#4 1250866957#1 458180195#1 458180193#1 458180193#4 458180193#7 458180189#1 458180187#1 458180187#4 458180187#7 196117039#1 496990647#1 496990647#4 496990647#7 630828556#1 1316295726#1 458177133#1 458177133#5 458177133#9 458177129#1 518451322#1 541351705#1 458166896#1 458166896#5 458166896#9 1135346523#1 1051841852#1 1051841854#1 1051841856#1 1051841857#1 871725893#1 1037772578#1 1037772579#1 -1088320651#1 -1088320650#2 -814612602#21 -814612602#16 -814612602#11 -814612602#6 -814612602#1 -5671774#18 -5671774#13 -5671774#8 -5671774#3 -496992369#23 -496992369#18 -496992369#13 -496992369#8 -496992369#3 -438389785#2 584971395#1 630828592#4 1315845427#0 1315845428#1 945523294#0 276670360#1 1315845433#0 5670594#1 5670594#5 5670594#9 349873702#1 420355076#1 40709921#1 1343731013#0 112116234#1 112116234#5 112116234#9 420355077#1 165777195#0 997125811#1 675967321#1 420355081#1 1238545752#0 1333472258#1 496982789#1 496982789#5 165775306#0 222299242#0 -414751458#1 -42786502#1 -1333438297#0 -1329888403#0 -420890077#0 496990645 414744944 -524361790 194923778#1 1333741754#1 525038147 496978219#1 525658419#1 525656852#0 525656847#1 46154338#1 847932331#1 1127576696#1 1135576504#1 1148931681#1 5670267#1 5670267#2 955134530#0 955134530#1 1330631026 614572151#1 195743264#1 195743264#3 438900013#1 1021063591 420809440#0 195743228#1 421832645#0 222299274#1 1341647375#0 195743229#0 195743226#1 516664210#1 516664206#0 413050334#1 1362576631#0 1362576631#1 1135361169#1 1135361170#0 496982371#0 588157330 438370108#0 438370108#2 420809441 1362575285#1 420809420#0 420809420#1 420809420#5 420809420#6 420809420#8 420809420#9 195743557#0 195743557#1 195743557#2 195743557#3 195743557#7 195743557#8 420522049#1 420522049#2 420522049#3 420522049#7 473884145#0 473884145#2 1059329369 1021037338 1187622117#0 46334603#0 22909152#0 485556247#1 194923800#3 194923800#4 194923800#8 127693200#1 127693200#4 226041041#1 226041042#1 46490540#1 939613202#1 396444293#0 396444293#1 396444293#4 396444293#8 396444295#1 396444295#4 396444295#8 1021481768#2 1021481768#3 1021481767#1 1029634435#1 589494595#1 496986803#1 496986803#4 496986803#7 496986803#10 1211608942#1 1041012063#1 1211608943#1 954520389#0 945460473#1 460585328#1 460585328#4 460585328#7 460585328#10 460585328#13 460585328#16 460585328#19 1308875367#1 1308875366#0 1308875366#3 808190587#1 601733867#1 808190579#0 808190588#1 195743301#1 808190577#0 808190584#1 808190584#4 808190576 1343181788#0 -835176553#1 -420892266#0 -420892262#1 46525065#8 46525065#9 420890023#2 439801902 460065820 439801901#0 1211612939 167922075#0 167922075#1 420899373 -196116988#0 -420899371 5670253#1 5670874#1 5671574#1 198924587#1 964208970#0 458180199#1 458180199#4 458180199#7 458180199#8 458180199#11 458180199#13 458180199#15 195743183#1 195743183#4 195743183#7 195743185#1 195743185#4 195743185#7 195743185#10 587061858#1 587061858#4 587061858#7 587061858#10 587061858#13 587061858#16 587061858#19 195743180#1 195743180#4 195743180#7 195743180#10 195743180#13 195743180#14 68668527#0 68668527#1 68668527#2 68668527#3 68668527#4 68668544#1 68668544#4 68668544#7 68668544#10 68668544#13 68668544#16 68668544#19 68668544#22 68668544#25 68668544#28 68668554#1"/>
        </routeDistribution>
        <stop lane="980855833#0_0" actType="idling"/>
        <stop lane="1370835885#3_0" permitted="p16" actType="pickup p16 (16)"/>
        <stop lane="1032460514#0_0" actType="dropOff p16 (16)"/>
        <stop lane="1148931681#1_0" permitted="p18" actType="pickup p18 (18)"/>
        <stop lane="46334603#0_0" actType="dropOff p18 (18)"/>
        <stop lane="68668554#1_0" actType="dropOff p41 (41)"/>
    </vehicle>

    <person id="p43" depart="10447.00" arrival="12777.00">
        <ride from="32962789" to="-1159051925#0" arrivalPos="1.99" lines="taxi"/>
    </person>

    <person id="p46" depart="11292.00" arrival="13148.00">
        <ride from="1318001658#1" to="458106348#0" arrivalPos="2.00" lines="taxi"/>
    </person>

    <person id="p42" depart="10366.00" arrival="14035.00">
        <ride from="32934355" to="46613661#1" arrivalPos="1.98" lines="taxi"/>
    </person>

    <person id="p47" depart="11854.00" arrival="14056.00">
        <ride from="195743342#10" to="-1159051925#0" arrivalPos="1.96" lines="taxi"/>
    </person>

    <person id="p45" depart="11171.00" arrival="14710.00">
        <ride from="584971524#0" to="420905717#1" arrivalPos="1.96" lines="taxi"/>
    </person>

    <person id="p48" depart="12300.00" arrival="14967.00">
        <ride from="1080982427#0" to="46240148#1" arrivalPos="1.98" lines="taxi"/>
    </person>

    <person id="p49" depart="12603.00" arrival="15756.00">
        <ride from="584971524#0" to="485139335" arrivalPos="1.99" lines="taxi"/>
    </person>

</routes>
