<?xml version="1.0" encoding="UTF-8"?>

<!-- generated on 2025-10-26T19:57:35.335689+00:00 by Eclipse SUMO GUI v1_24_0+1451-23d18e1e926
This data file and the accompanying materials
are made available under the terms of the Eclipse Public License v2.0
which accompanies this distribution, and is available at
http://www.eclipse.org/legal/epl-v20.html
This file may also be made available under the following Secondary
Licenses when the conditions for such availability set forth in the Eclipse
Public License 2.0 are satisfied: GNU General Public License, version 2
or later which is available at
https://www.gnu.org/licenses/old-licenses/gpl-2.0-standalone.html
SPDX-License-Identifier: EPL-2.0 OR GPL-2.0-or-later
<sumoConfiguration xmlns:xsi="http://www.w3.org/2001/XMLSchema-instance" xsi:noNamespaceSchemaLocation="http://sumo.dlr.de/xsd/sumoConfiguration.xsd">

    <input>
        <net-file value="osm2.net.xml"/>
        <route-files value="gtfs_out/gtfs_publictransport.rou.xml,taxi_trips_019.rou.xml,persontrips.xml"/>
        <additional-files value="gtfs_out/gtfs_publictransport.add.xml,                            gtfs_out/pt_vtypes.xml,                            taxi_vtypes.xml,                            taxi_zones.taz.xml,                            taxi_zones.poly.xml"/>
    </input>

    <output>
        <write-license value="true"/>
        <tripinfo-output value="tripinfos.xml"/>
        <vehroute-output value="vehroutes.xml"/>
        <vehroute-output.skip-ptlines value="true"/>
    </output>

    <processing>
        <ignore-route-errors value="true"/>
        <tls.actuated.jam-threshold value="30"/>
        <default.speeddev value="0"/>
        <persontrip.walk-opposite-factor value="1.0"/>
    </processing>

    <routing>
        <persontrip.taxi.waiting-time value="30"/>
    </routing>

    <report>
        <verbose value="true"/>
        <duration-log.statistics value="true"/>
        <no-step-log value="true"/>
    </report>

</sumoConfiguration>
-->

<routes xmlns:xsi="http://www.w3.org/2001/XMLSchema-instance" xsi:noNamespaceSchemaLocation="http://sumo.dlr.de/xsd/routes_file.xsd">
    <person id="p0" depart="209.00" arrival="227.00">
        <walk edges="420883174#1 420883170#0"/>
    </person>

    <person id="p1" depart="662.00" arrival="1825.00">
        <walk edges="840993090#10 1112000461#2 1219067928#0 1219067928#1 -1377340847#0 1377359233 -1377340846#1 -829427491#1 -1423837134#0 1423837133 -1377733846#1 -497250989#0 1111702456#0" busStop="401271_0"/> <!-- FREDERICK DOUGLASS BLVD/W 121 ST -->
        <walk edges="848011475#1 -806169765#16 806169765#13 806169765#10 -806169765#7 806169765#4 806169765#1 848011474#4 -848011474#1 47796089#1 1219074531#1 1219074530#1 1111757093#1 835859049 -1384483470#1"/>
    </person>

    <person id="p2" depart="782.00" arrival="3128.00">
        <walk edges="-496992369#23 5671774#1" busStop="403913_0"/> <!-- 3 AV/E 14 ST -->
        <ride from="5671774#1" to="61133358#1" busStop="402506_0" intended="OH_D5-Weekday-145500_M101_150.0" depart="1000.00"/> <!-- W 125 ST/5 AV -->
        <walk edges="61133358#1"/>
    </person>

    <person id="p3" depart="1162.00" arrival="3390.00">
        <walk edges="5670877#1 835694479#1 1125256575#1 888759074#1 888759074#2 888759074#3 888759074#4 888759064#1 888759064#2 888759064#3 888759064#4 1124499615#2 1125106297" busStop="404108_0"/> <!-- CHURCH ST/VESEY ST -->
        <walk edges="5672377#10 -1149017059#0 587038051#1 222299254#1" busStop="405279_0"/> <!-- CHURCH ST/WARREN ST -->
        <ride from="222299254#1" to="496978510#1" busStop="903176_0" intended="MQ_D5-Weekday-146400_M55_415.0" depart="1728.00"/> <!-- 6 AV/W 15 ST -->
        <walk edges="496978510#1 -347306313#0 -347306313#1 -347306313#2 496993920#1 458106347#0"/>
    </person>

    <person id="p16" depart="3576.00" arrival="3589.00">
        <walk edges="799234248#0 5669574#1"/>
    </person>

    <person id="p5" depart="1613.00" arrival="3697.00">
        <walk edges="1274636982#7 -25166891#3" busStop="401553_0"/> <!-- E 10 ST/AVENUE B -->
        <ride from="-25166891#3" to="945473888#1" busStop="401558_0" intended="MQ_D5-Weekday-146700_M9_66.0" depart="1692.00"/> <!-- E 9 ST/3 AV -->
        <walk edges="1284427730" busStop="405155_0"/> <!-- 3 AV/E 9 ST -->
        <ride from="496992369#1" to="652023438#1" busStop="403777_0" intended="OH_D5-Weekday-147700_M101_145.0" depart="2242.00"/> <!-- 3 AV/E 97 ST -->
        <walk edges="652023438#1"/>
    </person>

    <person id="p6" depart="1793.00" arrival="4073.00">
        <walk edges="-496992369#23 5671774#1" busStop="403913_0"/> <!-- 3 AV/E 14 ST -->
        <ride from="5671774#1" to="375165666#1" busStop="403545_0" intended="OH_D5-Weekday-147000_M101_144.0" depart="1900.00"/> <!-- 3 AV/E 60 ST -->
        <walk edges="375165666#1 46521995#1 963856064#0 1111066181#1 834353298#2 834353298#1 834353288#1 198924552#1 834353280#1 661047630#0 1262390659#0 661047622#3 661047622#2 661047622#1 436899201#4 436899201#3 436899201#2 436899201#1 661047624#3 436899178#1 422298615#1 -497258109#3" busStop="402228_0"/> <!-- W 57 ST/5 AV -->
        <ride from="-497258109#3" to="584971501#1" busStop="403986_0" intended="MQ_D5-Weekday-149300_M72_617.0" depart="3547.00"/> <!-- W 57 ST/10 AV -->
        <walk edges="584971501#1"/>
    </person>

    <person id="p17" depart="4111.00" arrival="4156.00">
        <walk edges="980855831#1 834043284#0"/>
    </person>

    <person id="p7" depart="1882.00" arrival="4282.00">
        <walk edges="955261513#1" busStop="401686_0"/> <!-- 1 AV/E 11 ST -->
        <ride from="955261513#1" to="420905717#1" busStop="401725_0" intended="OH_D5-Weekday-145400_M15_248.0" depart="1911.00"/> <!-- 1 AV/E 111 ST -->
        <walk edges="420905717#1"/>
    </person>

    <person id="p4" depart="1307.00" arrival="4495.00">
        <walk edges="584971501#1 835176553#1" busStop="402233_0"/> <!-- W 57 ST/9 AV -->
        <walk edges="1101815150#1 1101809312#1 1101809311#1 1097300919#4 1097304417#2 1097304417#1 948627246#1" busStop="400861_0"/> <!-- COLUMBUS CIRCLE/8 AV -->
        <ride from="1024425034" to="422298615#1" busStop="402446_0" intended="MV_D5-Weekday-144000_M5_543.0" depart="2040.00"/> <!-- 5 AV/W 58 ST -->
        <walk edges="422298615#1 436899178#1 661047624#3 436899201#1 436899201#2 436899201#3 436899201#4 661047622#1 661047622#2 661047622#3 1262390659#0 661047630#0 834353280#1 198924552#1 834353288#1 834353298#1 834353298#2 1111066181#1 963856064#0 46521995#1 375165666#1" busStop="403545_0"/> <!-- 3 AV/E 60 ST -->
        <ride from="375165666#1" to="806195279#1" busStop="405181_0" intended="OH_D5-Weekday-147700_M101_145.0" depart="3018.00"/> <!-- 3 AV/E 116 ST -->
        <walk edges="806195279#1 806195279#2"/>
    </person>

    <person id="p10" depart="2771.00" arrival="4776.00">
        <walk edges="1338269594#1 837943498 1128388462#1 1334389559 -1296669289#1 -1128388463#4 -1128388463#1 -827979008#5 -827979008#2 1126410268#1" busStop="400988_0"/> <!-- BROADWAY/THAMES ST -->
        <walk edges="827979008#1 -1149014898#1 1126410124#5 1126410088#3 1126410088#2 1126410088#1 1126410088#0 888759086#7 888759086#6" busStop="405492_0"/> <!-- CHURCH ST/LIBERTY ST -->
        <ride from="460624365#0" to="496978510#1" busStop="903176_0" intended="MQ_D5-Weekday-149400_M55_414.0" depart="3429.00"/> <!-- 6 AV/W 15 ST -->
        <walk edges="496978510#1 347306313#0"/>
    </person>

    <person id="p20" depart="4516.00" arrival="5040.00">
        <walk edges="-1080982436#1 -1080982435#0" busStop="401577_0"/> <!-- W 14 ST/6 AV -->
        <walk edges="894118355#2 894118356#4 -5670924#1 1080982433#0" busStop="404271_0"/> <!-- E 14 ST/UNIVERSITY PL -->
        <walk edges="1303581877#7 666752576#1 -420522695#2 1315848397#1"/>
    </person>

    <person id="p13" depart="3219.00" arrival="5225.00">
        <walk edges="1156810185#1" busStop="400903_0"/> <!-- STATE ST/BRIDGE ST -->
        <ride from="1156810185#1" to="496978510#1" busStop="903176_0" intended="MQ_D5-Weekday-149400_M55_414.0" depart="3288.00"/> <!-- 6 AV/W 15 ST -->
        <walk edges="496978510#1 -347306313#0 -347306313#1 -347306313#2 496993920#1 458106347#0"/>
    </person>

    <person id="p15" depart="3492.00" arrival="5645.00">
        <walk edges="-496992369#23 5671774#1" busStop="403913_0"/> <!-- 3 AV/E 14 ST -->
        <ride from="5671774#1" to="458166897#22" busStop="402682_0" intended="OH_D5-Weekday-006300_M101_3.0" depart="3880.00"/> <!-- 3 AV/E 50 ST -->
        <walk edges="458166897#22 458180188#1 511924978#2 441405436#1 5673497#1" busStop="402171_0"/> <!-- E 50 ST/5 AV -->
        <walk edges="1219891341#1 5670867#5 5670867#1 420908138#3 420908138#2 420908138#1 1136460176#1 1376951511#2 1376951511#1 1376951512#1"/>
    </person>

    <person id="p25" depart="5861.00" arrival="5955.00">
        <walk edges="1135614655#1 1051734606#1"/>
    </person>

    <person id="p12" depart="2984.00" arrival="6615.00">
        <walk edges="46240205#16 1111557601#1 278882490#1 543906990#1 68668517#1" busStop="803153_0"/> <!-- E 126 ST/2 AV -->
        <walk edges="1113564861 1210446277#0 1086272873#1 420871070#1" busStop="405349_0"/> <!-- 2 AV/E 124 ST -->
        <ride from="420871070#1" to="420598270#0" busStop="401782_0" intended="OH_D5-Weekday-006000_M15_203.0" depart="3655.00"/> <!-- 2 AV/E 14 ST -->
        <walk edges="420598270#0 -438388090#1 -1080982430#0 68668526#1 194923764#1 1414986306#2"/>
    </person>

    <person id="p18" depart="4259.00" arrival="6739.00">
        <walk edges="5670877#1 835694479#1 1125256575#1 888759074#1 888759074#2 888759074#3 888759074#4 888759064#1 888759064#2 888759064#3 888759064#4 1124499615#2 1125106297" busStop="404108_0"/> <!-- CHURCH ST/VESEY ST -->
        <walk edges="5672377#10 -1149017059#0 587038051#1 -222299254#1 -483707770#1 413054286#1 955237975#1 -947916172#1 903589929#1" busStop="405024_0"/> <!-- CHURCH ST/WORTH ST -->
        <ride from="903589929#1" to="496978510#1" busStop="903176_0" intended="MQ_D5-Weekday-152000_M55_415.0" depart="5148.00"/> <!-- 6 AV/W 15 ST -->
        <walk edges="496978510#1 -347306313#0 -347306313#1 -347306313#2 496993920#1 458106347#0"/>
    </person>

    <person id="p11" depart="2875.00" arrival="6741.00">
        <walk edges="980855831#1 834043284#0 46693868#1 -5670261#1 -834043278 -834043286#1 584971412#15" busStop="402811_0"/> <!-- LEXINGTON AV/E 110 ST -->
        <ride from="584971412#15" to="-496992369#23" busStop="404106_0" intended="OH_D5-Weekday-005400_M101_7.0" depart="3456.00"/> <!-- 3 AV/E 14 ST -->
        <walk edges="-496992369#23 -630828594#3" busStop="403871_0"/> <!-- E 14 ST/3 AV -->
        <ride from="-630828594#3" to="458106348#1" busStop="403897_0" intended="MQ_D5-Weekday-150800_SBS14_761.0" depart="5047.00"/> <!-- W 14 ST/8 AV -->
        <walk edges="458106348#1"/>
    </person>

    <person id="p19" depart="4310.00" arrival="6941.00">
        <walk edges="-496992369#23 5671774#1" busStop="403913_0"/> <!-- 3 AV/E 14 ST -->
        <ride from="5671774#1" to="420878118#1" busStop="401051_0" intended="OH_D5-Weekday-007200_M101_4.0" depart="4420.00"/> <!-- MALCOLM X BLVD/W 127 ST -->
        <walk edges="420878118#1"/>
    </person>

    <person id="p8" depart="1995.00" arrival="7328.00">
        <walk edges="980855831#1 840996403#1 195743338#0 195743338#3 195743338#6 195743338#9 993517671#1 195743332#1 833376609#0" busStop="400110_0"/> <!-- 5 AV/E 104 ST -->
        <walk edges="195743332#4 195743332#7 195743332#10 759304984#1 759304983 667956341#0 667956341#1 667956310#1 195743184#4 195743184#1 68668554#1 1024634984#1" busStop="401939_0"/> <!-- E 96 ST/MADISON AV -->
        <ride from="1024634984#1" to="-1091726255#1" busStop="401941_0" intended="MV_D5-Weekday-148500_M96_837.0" depart="3245.00"/> <!-- E 96 ST/LEXINGTON AV -->
        <walk edges="667973466#2 664697003 1015378843#0 353220115#4 353220115#7 353220115#10 353220115#13" busStop="404947_0"/> <!-- LEXINGTON AV/E 92 ST -->
        <ride from="353220115#13" to="1228693942#1" busStop="402870_0" intended="OH_D5-Weekday-005400_M101_7.0" depart="3772.00"/> <!-- PARK ROW/WORTH ST -->
        <walk edges="1228693942#1 -414751458#1 1333438297#3 1333438296#1 -1329888403#0 420890074#1 -496990645 414744944 -524361790 194923778#1" busStop="401797_0"/> <!-- PEARL ST/FRANKFORT ST -->
        <ride from="194923778#1" to="195743199#1" busStop="401802_0" intended="OH_D5-Weekday-006000_M15_203.0" depart="6082.00"/> <!-- WATER ST/HANOVER SQ -->
        <walk edges="195743199#1"/>
    </person>

    <person id="p32" depart="8111.00" arrival="8132.00">
        <walk edges="1051734606#1 1135614655#1"/>
    </person>

    <person id="p33" depart="8177.00" arrival="8182.00">
        <walk edges="1414986306#2 -1414986306#2"/>
    </person>

    <person id="p23" depart="5350.00" arrival="8245.00">
        <walk edges="46226325#1 -1052970500#1 420885235#0 420885241#1" busStop="401744_0"/> <!-- 2 AV/E 108 ST -->
        <ride from="420885241#1" to="420598270#0" busStop="401782_0" intended="OH_D5-Weekday-009000_M15_204.0" depart="5765.00"/> <!-- 2 AV/E 14 ST -->
        <walk edges="420598270#0 -438388090#1 -1080982430#0 68668526#1 194923764#1 1414986306#2"/>
    </person>

    <person id="p22" depart="5262.00" arrival="8830.00">
        <walk edges="483704512#3 -483704512#1 5672273#0 -1112436296 543717203#0 663499012#3 1112578562#7 297995648#2 297995648#1 297995648#0 22986670#2 22986670#1 22986670#8 297995652#0 297995652#1 297995652#2 1112578572 464683321#1 1051841858#1 428569470#1 597821267#1 597821267#2 -380096992#1 -619277987#0 871738273#0 914222865#0 1160042619#3 1160042619#4 512052143#0 194923807#4" busStop="405396_1"/> <!-- 1 AV/E 27 ST -->
        <ride from="194923807#4" to="420905717#1" busStop="401725_0" intended="OH_D5-Weekday-009000_M15_202.0" depart="6603.00"/> <!-- 1 AV/E 111 ST -->
        <walk edges="420905717#1"/>
    </person>

    <person id="p26" depart="6082.00" arrival="8831.00">
        <walk edges="68668526#1 -420872180#1 954955253#0 -954955254#1 954955255#0 -954955256#1 954955257" busStop="401688_0"/> <!-- 1 AV/E 17 ST -->
        <ride from="954955257" to="420905717#1" busStop="401725_0" intended="OH_D5-Weekday-009000_M15_202.0" depart="6445.00"/> <!-- 1 AV/E 111 ST -->
        <walk edges="420905717#1"/>
    </person>

    <person id="p14" depart="3357.00" arrival="9114.00">
        <walk edges="505582406#1 -420890022#0 1101364470#1" busStop="400861_0"/> <!-- COLUMBUS CIRCLE/8 AV -->
        <ride from="1024425034" to="511699185#1" busStop="400135_0" intended="MV_D5-Weekday-147000_M4_455.0" depart="3840.00"/> <!-- 5 AV/W 42 ST -->
        <walk edges="511699185#1 1316295724#1 1316295724#4 1316295725#0 1316295725#5 5670106#1 5670106#2 1316831693#0 -36271338#3 1119998723#1 1111760833#0" busStop="405343_0"/> <!-- 2 AV/E 41 ST -->
        <ride from="1030139835#0" to="195743199#1" busStop="401802_0" intended="OH_D5-Weekday-006000_M15_203.0" depart="4920.00"/> <!-- WATER ST/HANOVER SQ -->
        <walk edges="195743199#1"/>
    </person>

    <person id="p34" depart="8492.00" arrival="9120.00">
        <walk edges="584971501#1 835176553#1" busStop="402233_0"/> <!-- W 57 ST/9 AV -->
        <walk edges="1101815150#1 1101809312#1 1101809311#1 46525065#8 46525065#9 1101364469#2 1101364469#1 1101364466#1 1211612937#0 1211612938"/>
    </person>

    <person id="p39" depart="9263.00" arrival="9267.00">
        <walk edges="1414986306#2 -1414986306#2"/>
    </person>

    <person id="p31" depart="7609.00" arrival="9538.00">
        <walk edges="-1080982436#1 -1080982435#0" busStop="401577_0"/> <!-- W 14 ST/6 AV -->
        <walk edges="894118355#2 894118356#4 -5670924#1 1080982433#0" busStop="404271_0"/> <!-- E 14 ST/UNIVERSITY PL -->
        <walk edges="1303581877#7 666752576#1 -420522695#2 -547089938#0 5672176#1 -1144268432#2 5672604#5 -496992369#8" busStop="402858_0"/> <!-- 3 AV/E 11 ST -->
        <ride from="-496992369#8" to="1333472258#1" busStop="402868_0" intended="OH_D5-Weekday-011200_M101_1.0" depart="8648.00"/> <!-- BOWERY/CANAL ST -->
        <walk edges="1333472258#1"/>
    </person>

    <person id="p27" depart="6285.00" arrival="9794.00">
        <walk edges="962626218#0 436899182#1 661047622#0 436899201#4 436899201#3 436899201#2 436899201#1 661047624#2 661047624#1 661047624#0 1262390658#1 661047630#2 834353297#0 388696207#1 421850829#1 421850830#0 420906752#1 458180196#1 420281339#1 1111683114#1 1111970571#2 1355847027 1355847025 1355847024#1 1355847024#0 1355847030 1111016500#2 1219891345#0 1111016476#2 375673048#3 1219118715#2 1219118715#1 1219118715#0 1219891323#0 458180193#7 458180189#1 458180187#1 458180187#4 458180187#7 196117039#1 496990647#1 496990647#4 496990647#7 630828556#1 1316295726#1 458177133#1" busStop="402845_0"/> <!-- LEXINGTON AV/E 40 ST -->
        <ride from="458177133#1" to="-496992369#23" busStop="404106_0" intended="OH_D5-Weekday-011200_M101_1.0" depart="8126.00"/> <!-- 3 AV/E 14 ST -->
        <walk edges="-496992369#23 438389786#1 -1080982432 1080982431#0 -438388090#1 -1080982430#0 68668526#1 194923764#1 1414986306#2"/>
    </person>

    <person id="p28" depart="6816.00" arrival="9835.00">
        <walk edges="5670877#1 835694479#1 1125256575#1 888759074#1 888759074#2 888759074#3 888759074#4 888759064#1 888759064#2 888759064#3 888759064#4 1124499615#2 1125106297" busStop="404108_0"/> <!-- CHURCH ST/VESEY ST -->
        <walk edges="5672377#10 -1149017059#0 587038051#1 -222299254#1 -483707770#1 413054286#1 955237975#1 -947916172#1 -1084033950#0 -524817693#1 -947916171#1 -5669922#0 -955293893#0 -955293893#1 -955293895#0 -955293895#2 955293895#3 497503643#1 497503643#0 497502831#1 497503640#0 497503636#0 497503636#1 497503636#2 497484738#1 539024460#0 539024460#1 539024460#2 1346484951#1 1324488838#0 1324488838#1 1324488838#2 -1061439211#0 1418601368 1418601369" busStop="400916_0"/> <!-- 6 AV/BROOME ST -->
        <walk edges="845994219#1 845994219#2 194923810#1 194923810#4 194923810#7 1423395725 433442259 433394647#0 433394647#2 -46139045 1205533070#1" busStop="400919_0"/> <!-- 6 AV/WEST HOUSTON ST -->
        <walk edges="433124988#1 433124988#2 433124988#3 433124988#4 433124988#5 433124988#6 385859374#3 -433124996#2 -467222812#10 -467222812#8 -467222812#5 -467222812#3 -467222812#1 -467222812#0 -954826394#1 954826394#0 -420598323#1 433110951#0 893841826#2 893841844#0 1007833787#0 -852992105#3 893841839#0 893841835#0 893841835#1 164420607#0 1191537370#1 888695517#1 888695517#2 1191537379#4 1191537385#1 1191537384#1 888695500#2 888695499#14 888695508#3 -611258687#1 -611258687#2 -46609036#1 -465098295#0 458106348#0"/>
    </person>

    <person id="p21" depart="4784.00" arrival="10092.00">
        <walk edges="569451559#0 834238141#2 834238141#0 -1004369133#1 -1031408121#1 981500818#0 981500817#1 981500816#0" busStop="405470_0"/> <!-- ALLEN ST/GRAND ST -->
        <ride from="981500816#0" to="954955254#1" busStop="401687_0" intended="OH_D5-Weekday-151500_M15_252.0" depart="5161.00"/> <!-- 1 AV/E 14 ST -->
        <walk edges="954955254#1 451808494#1 451808494#4 1118286350#1 1118286344 1316299813 894118335#1" busStop="403913_0"/> <!-- 3 AV/E 14 ST -->
        <walk edges="5671774#1 630828594#1 -195743164#1" busStop="403906_0"/> <!-- E 14 ST/IRVING PL -->
        <ride from="-195743164#1" to="-1080982436#0" busStop="403895_0" intended="MQ_D5-Weekday-008800_SBS14_702.0" depart="6300.00"/> <!-- W 14 ST/6 AV -->
        <walk edges="-1080982436#0"/>
    </person>

    <person id="p30" depart="7325.00" arrival="10738.00">
        <walk edges="1338269594#1 837943498 1128388462#1 825398022#1 825396685#1 669235402#0 1128358865#1 413727897#1 -46166212#1 541336911#0 1015379882#1 129834316#2 129834316#1 129834316#0 955134535#1 -1125256558#1 246085471#0 655260632#0 1298182742 888759051#1 1124499554#5 888759045 888759038#7 888759039 888759037#1 888759054#1 46171884#4 46171884#1 1042970371#0 1334989056#1 1334989057#1 226041017#0 556311124#18 556311124#15 556311124#13 556311124#10 556311124#7 556311124#4 556311124#1 607091411#13 607091411#10 607091411#9 607091411#7 607091411#4 607091411#1 -46171876#1 -1202586284#1 -1202586284#2 -1202586284#3 -1314051815 1314051814#0 -1202586283#1 -1202586283#2 -1202586282#0 -1202586282#1 1202586282#4 -1202586282#5 -1202586282#6 1202586282#7 -1202586282#11 1202586282#14 -812936280#1 -812936280#4 -812936280#7 -812936280#10 1314046608#0 5670454#1 663612309#0 893820075 1126604106#1 -439933935#1 -962612851#0 -962612851#1 -1027181001#0 22916321 1027181000 -730036152#0 -730036152#1 489375010#0 489375010#1 1027181002#0 -465098295#0 458106348#0"/>
    </person>

    <person id="p44" depart="10778.00" arrival="10816.00">
        <walk edges="420883170#0 420883174#1"/>
    </person>

    <person id="p24" depart="5745.00" arrival="11043.00">
        <walk edges="652023437#19 -652023437#16 5670470#5 584971412#21 584971412#24 196117041#1 993495873#1 993495871#1 993495869#1 993495868#1 993495868#4 993495868#7 993495867#0 993495865#1 993495865#4 353220112#1 353220115#1 353220115#4 353220115#7 353220115#10 353220115#13 353220115#16 353220115#19 353220115#22" busStop="405066_0"/> <!-- LEXINGTON AV/E 89 ST -->
        <ride from="353220115#22" to="1228693942#1" busStop="402870_0" intended="OH_D5-Weekday-011200_M101_1.0" depart="7469.00"/> <!-- PARK ROW/WORTH ST -->
        <walk edges="1228693942#1 -414751458#1 1333438297#3 1333438296#1 -1329888403#0 420890074#1 -496990645 414744944 -524361790 194923778#1" busStop="401797_0"/> <!-- PEARL ST/FRANKFORT ST -->
        <ride from="194923778#1" to="195743199#1" busStop="401802_0" intended="OH_D5-Weekday-012000_M15_201.0" depart="9682.00"/> <!-- WATER ST/HANOVER SQ -->
        <walk edges="195743199#1"/>
    </person>

    <person id="p29" depart="7033.00" arrival="11289.00">
        <walk edges="980855831#1 834043284#0 46693868#1 737093959#1 833533094#0 833533094#1 833533094#2 836055159#0 836055159#1 833533125#1 798222129#10 798222129#13 798222129#16 664893435#1 806195280#18 806195280#17 806195280#16 806195280#15 667956339#0 667956337#1 667956337#0 833366514#2 833366514#1 833366514#0 833366520#0 5670468#1 661292606#5 661292606#4 661292606#3 661198864#4 661198864#3 661198864#2 661198864#1 661198864#0 667981484#1 667981484#0 660247461#9 660247461#8 660247461#7 660247461#6 660247461#5 660247461#4 660247461#3 660247461#2 660247461#1 660247461#0 667981481#1 667981481#0 345301065#5 345301065#4 345301065#3 345301065#2 1395877700 660247429#2 660225427#0 660225492#0 660225444 660225517#1 195743326#1 660225433#1 660225480#1 660225480#0 660225455#0 -569266483#1 -569266486#1 -569266487#0 -569266490#1 -1153992800#1 -569266491#0 -1030119881#1 -1030119881#4 -1030119882#0 -569266494#1 -569266494#4 1030119883#0 -1024556668#1 -1024556667#1 1024556666#0 1024556669#1" busStop="401754_0"/> <!-- 2 AV/E 84 ST -->
        <ride from="1024556669#1" to="1021949719#1" busStop="404105_0" intended="OH_D5-Weekday-015000_M15_202.0" depart="9708.00"/> <!-- 2 AV/E 12 ST -->
        <walk edges="1021949719#1"/>
    </person>

    <person id="p36" depart="8810.00" arrival="12822.00">
        <walk edges="46226325#1 -1052970500#1 420885235#0 420885241#1 420885241#2 420885240#0 420885244#1 1057613219#1 -569266470#0 202360048#1 1335759518#1" busStop="401746_0"/> <!-- 2 AV/E 103 ST -->
        <ride from="1335759518#1" to="1053591753" busStop="401479_0" intended="OH_D5-Weekday-015000_M15_202.0" depart="9442.00"/> <!-- 2 AV/E 96 ST -->
        <walk edges="660225444 660225497#0" busStop="403632_0"/> <!-- E 96 ST/2 AV -->
        <ride from="353220077#1" to="5672068#4" busStop="404075_0" intended="MV_D5-Weekday-016000_M96_801.0" depart="9682.00"/> <!-- W 96 ST/COLUMBUS AV -->
        <walk edges="5672068#4 -421853638#1 -421853638#4 421853624#0 -226015229#1 226015229#4 421853632#0 421853635#1" busStop="401091_0"/> <!-- COLUMBUS AV/W 92 ST -->
        <ride from="421853635#1" to="1024425034" busStop="400861_0" intended="OF_D5-Weekday-016000_M7_201.0" depart="10726.00"/> <!-- COLUMBUS CIRCLE/8 AV -->
        <walk edges="948627246#1 1097304417#1 1097304417#2 1097300919#4 1101809311#1 1101809312#1 1101815150#1" busStop="402233_0"/> <!-- W 57 ST/9 AV -->
        <walk edges="835176553#1 584971501#1"/>
    </person>

    <person id="p40" depart="9548.00" arrival="13416.00">
        <walk edges="962626218#0 1150705656#1 422298615#1 195743336#1 195743336#4 988984235#0 458180197#1 458180191#1 458180191#4 1352944235#1 458180190#1 458180190#2 458180190#3 384178816#1 384178816#4 511699175#1 458180183#1 438397345#1 464515891#1 511699184#1 511699185#1 438385431#1 438385431#4 438385431#7 438385431#10" busStop="400323_0"/> <!-- 5 AV/W 36 ST -->
        <walk edges="1111999149#1 1138231999#1 46469731#1 1201643838#0 1201643836#1 1222344929#2 1111534185 1111534186 1111534188#0 458166896#1" busStop="403821_0"/> <!-- LEXINGTON AV/E 34 ST -->
        <ride from="458166896#1" to="-496992369#23" busStop="404106_0" intended="OH_D5-Weekday-017200_M101_7.0" depart="11811.00"/> <!-- 3 AV/E 14 ST -->
        <walk edges="-496992369#23 438389786#1 -1080982432 1080982431#0 -438388090#1 -1080982430#0 68668526#1 194923764#1 1414986306#2"/>
    </person>

    <person id="p43" depart="10447.00" arrival="13424.00">
        <walk edges="652023437#19 5673416#7 584971412#15" busStop="402811_0"/> <!-- LEXINGTON AV/E 110 ST -->
        <ride from="584971412#15" to="-496992369#23" busStop="404106_0" intended="OH_D5-Weekday-017200_M101_7.0" depart="10716.00"/> <!-- 3 AV/E 14 ST -->
        <walk edges="-496992369#23 438389786#1 -1080982432 1080982431#0 -438388090#1 -1080982430#0 68668526#1 194923764#1 1414986306#2"/>
    </person>

    <person id="p46" depart="11292.00" arrival="13649.00">
        <walk edges="1031408127#0 620641104#1 1414577719#1 904809348#1" busStop="401675_0"/> <!-- PIKE ST/DIVISION ST -->
        <ride from="904809348#1" to="954955257" busStop="401688_0" intended="OH_D5-Weekday-018000_M15_201.0" depart="11378.00"/> <!-- 1 AV/E 17 ST -->
        <walk edges="430610070#2 1053240893 1053240870#0 22897633#4 22897633#7 22897633#9 22897633#10 22897633#14 616745174#1 464683323#1 -5671459#1 1032043567#0 -5670785#1 481403099#0 481403099#1 481403099#4 458106346#0"/>
    </person>

    <person id="p37" depart="8857.00" arrival="13674.00">
        <walk edges="-226041024#1 -1032030521#0 -194926846#3 194926846#1 1049845754#0 569345543#1 1117680764#1 1117680748#1 1117680714#1 35027229#1 803047267#1 1122798249#1 958919324#1 700951338#1 700951339#1 420904657#1 -713102051#0 439933937#1 439933937#2 439933937#3 664985015#1 667933507#6 664985026#0 35027226#2 35027226#3 35027226#4 -1224490986#1 693345069 -1224490988#0 -1224490987#1 -46581216 -1289161775#0 -976050705#1 788278350 -1224490989#0 -1224490989#3 1027208772 -976050704#0 -976050704#3 788278347 -1224490990#0 -976050703#0 167923358#1 491162341#1 1112436303#0 474864229#3 474864229#2 474864229#1 663499009#0 1298057019#1 34080174#3 1303579083#0 1303171092#1 -803024465#1 803024465#4 -923091034#0 -1307288129#0 -923091001 -1307288130#1 -167923357#1 464683323#1 616745174#1 22897633#14 -5671774#13" busStop="402856_0"/> <!-- 3 AV/E 17 ST -->
        <ride from="-5671774#13" to="413056164#1" busStop="404142_0" intended="OH_D5-Weekday-017200_M101_7.0" depart="12127.00"/> <!-- PARK ROW/BEEKMAN ST -->
        <walk edges="413056164#1 46160153#1 46160365#7 46160365#4 46160365#1"/>
    </person>

    <person id="p38" depart="8930.00" arrival="13700.00">
        <walk edges="483704512#3 -1266830893#1 489019752#1" busStop="400731_0"/> <!-- 6 AV/W 27 ST -->
        <walk edges="1111504028#3 -968394452#1 -968394452#4 968394453#0 -968394455#1 1111504009#5 1112044822 1111504023#4 68668519#1 -460606347#1 664985026#0 667933507#6 664985015#1 -496983397#1 -496983396#0 587038081#1 -384649120#3 384649120#6" busStop="404039_0"/> <!-- 6 AV/W 38 ST -->
        <ride from="384649120#6" to="439805285#1" busStop="401031_0" intended="OF_D5-Weekday-016000_M7_202.0" depart="9955.00"/> <!-- AMSTERDAM AV/W 96 ST -->
        <walk edges="439805285#1 -5672068#4" busStop="401935_0"/> <!-- W 96 ST/AMSTERDAM AV -->
        <ride from="-5672068#4" to="1024634984#1" busStop="401939_0" intended="MV_D5-Weekday-018000_M96_801.0" depart="10912.00"/> <!-- E 96 ST/MADISON AV -->
        <walk edges="1024634984#1 -1024634984#1"/>
    </person>

    <person id="p41" depart="9961.00" arrival="13703.00">
        <walk edges="420892262#1 -420892267#0 -460067515#1 -938601996#1 938601999#0 -630828581#6 630828581#3 196117085#1 1161025024#1" busStop="400747_0"/> <!-- BROADWAY/W 63 ST -->
        <ride from="1161025024#1" to="439805285#1" busStop="401031_0" intended="OF_D5-Weekday-016000_M7_202.0" depart="10467.00"/> <!-- AMSTERDAM AV/W 96 ST -->
        <walk edges="439805285#1 -5672068#4" busStop="401935_0"/> <!-- W 96 ST/AMSTERDAM AV -->
        <ride from="-5672068#4" to="1024634984#1" busStop="401939_0" intended="MV_D5-Weekday-018000_M96_801.0" depart="10912.00"/> <!-- E 96 ST/MADISON AV -->
        <walk edges="1024634984#1 -1024634984#1"/>
    </person>

    <person id="p45" depart="11171.00" arrival="14016.00">
        <walk edges="1031408127#0 620641104#1 1414577719#1 904809348#1" busStop="401675_0"/> <!-- PIKE ST/DIVISION ST -->
        <ride from="904809348#1" to="420905717#1" busStop="401725_0" intended="OH_D5-Weekday-018000_M15_201.0" depart="11378.00"/> <!-- 1 AV/E 111 ST -->
        <walk edges="420905717#1"/>
    </person>

    <person id="p35" depart="8606.00" arrival="14649.00">
        <walk edges="980855831#1 840996403#1 195743338#0 195743338#3 195743338#6 833533105#1 833533124 833376611#1 833376611#0" busStop="404080_0"/> <!-- E 106 ST/MADISON AV -->